<?xml version="1.0" encoding="UTF-8"?>

<!-- generated on 2022-12-08 20:13:22 by Eclipse SUMO GUI Version 1.14.1
<configuration xmlns:xsi="http://www.w3.org/2001/XMLSchema-instance" xsi:noNamespaceSchemaLocation="http://sumo.dlr.de/xsd/sumoConfiguration.xsd">

    <input>
        <net-file value="mtfc.net.xml"/>
        <route-files value="mtfc.rou.xml"/>
        <additional-files value="mtfc.add.xml"/>
    </input>

    <output>
        <tripinfo-output value="tripinfo.xml"/>
    </output>

    <traci_server>
        <remote-port value="55547"/>
    </traci_server>

    <gui_only>
        <quit-on-end value="true"/>
        <start value="true"/>
    </gui_only>

</configuration>
-->

<tripinfos xmlns:xsi="http://www.w3.org/2001/XMLSchema-instance" xsi:noNamespaceSchemaLocation="http://sumo.dlr.de/xsd/tripinfo_file.xsd">
    <tripinfo id="sportly_carflow.0" depart="0.00" departLane="eStart_1" departPos="5.10" departSpeed="0.00" departDelay="0.00" arrival="207.00" arrivalLane="eEnd_0" arrivalPos="1000.00" arrivalSpeed="36.11" duration="207.00" routeLength="6503.84" waitingTime="0.00" waitingCount="0" stopTime="0.00" timeLoss="43.71" rerouteNo="0" devices="tripinfo_sportly_carflow.0" vType="sportly_car" speedFactor="1.24" vaporized=""/>
    <tripinfo id="normal_carflow0.0" depart="0.00" departLane="eStart_0" departPos="5.10" departSpeed="0.00" departDelay="0.00" arrival="212.00" arrivalLane="eEnd_0" arrivalPos="1000.00" arrivalSpeed="36.11" duration="212.00" routeLength="6503.84" waitingTime="0.00" waitingCount="0" stopTime="0.00" timeLoss="41.43" rerouteNo="0" devices="tripinfo_normal_carflow0.0" vType="normal_car" speedFactor="1.06" vaporized=""/>
    <tripinfo id="normal_carflow0.3" depart="13.00" departLane="eStart_2" departPos="5.10" departSpeed="0.00" departDelay="7.60" arrival="261.00" arrivalLane="eEnd_2" arrivalPos="1000.00" arrivalSpeed="36.11" duration="248.00" routeLength="6503.84" waitingTime="0.00" waitingCount="0" stopTime="0.00" timeLoss="75.76" rerouteNo="0" devices="tripinfo_normal_carflow0.3" vType="normal_car" speedFactor="1.05" vaporized=""/>
    <tripinfo id="normal_carflow0.7" depart="21.00" departLane="eStart_1" departPos="5.10" departSpeed="0.00" departDelay="8.40" arrival="263.00" arrivalLane="eEnd_1" arrivalPos="1000.00" arrivalSpeed="36.11" duration="242.00" routeLength="6503.84" waitingTime="0.00" waitingCount="0" stopTime="0.00" timeLoss="66.18" rerouteNo="0" devices="tripinfo_normal_carflow0.7" vType="normal_car" speedFactor="1.03" vaporized=""/>
    <tripinfo id="normal_carflow0.6" depart="21.00" departLane="eStart_0" departPos="5.10" departSpeed="0.00" departDelay="10.20" arrival="264.00" arrivalLane="eEnd_2" arrivalPos="1000.00" arrivalSpeed="36.11" duration="243.00" routeLength="6503.84" waitingTime="0.00" waitingCount="0" stopTime="0.00" timeLoss="77.10" rerouteNo="0" devices="tripinfo_normal_carflow0.6" vType="normal_car" speedFactor="1.09" vaporized=""/>
    <tripinfo id="normal_carflow0.8" depart="25.00" departLane="eStart_2" departPos="5.10" departSpeed="0.00" departDelay="10.60" arrival="265.00" arrivalLane="eEnd_1" arrivalPos="1000.00" arrivalSpeed="36.11" duration="240.00" routeLength="6503.84" waitingTime="0.00" waitingCount="0" stopTime="0.00" timeLoss="67.39" rerouteNo="0" devices="tripinfo_normal_carflow0.8" vType="normal_car" speedFactor="1.05" vaporized=""/>
    <tripinfo id="sportly_carflow.1" depart="26.00" departLane="eStart_1" departPos="5.10" departSpeed="0.00" departDelay="11.60" arrival="266.00" arrivalLane="eEnd_2" arrivalPos="1000.00" arrivalSpeed="36.11" duration="240.00" routeLength="6503.84" waitingTime="0.00" waitingCount="0" stopTime="0.00" timeLoss="77.02" rerouteNo="0" devices="tripinfo_sportly_carflow.1" vType="sportly_car" speedFactor="1.42" vaporized=""/>
    <tripinfo id="bus_flow.0" depart="8.00" departLane="eStart_2" departPos="14.10" departSpeed="0.00" departDelay="8.00" arrival="267.00" arrivalLane="eEnd_0" arrivalPos="1000.00" arrivalSpeed="27.78" duration="259.00" routeLength="6494.84" waitingTime="0.00" waitingCount="0" stopTime="0.00" timeLoss="24.57" rerouteNo="0" devices="tripinfo_bus_flow.0" vType="bus" speedFactor="1.04" vaporized=""/>
    <tripinfo id="normal_carflow0.1" depart="8.00" departLane="eStart_0" departPos="5.10" departSpeed="0.00" departDelay="6.20" arrival="267.00" arrivalLane="eEnd_1" arrivalPos="1000.00" arrivalSpeed="36.11" duration="259.00" routeLength="6503.84" waitingTime="0.00" waitingCount="0" stopTime="0.00" timeLoss="83.97" rerouteNo="0" devices="tripinfo_normal_carflow0.1" vType="normal_car" speedFactor="1.03" vaporized=""/>
    <tripinfo id="truck_flow.0" depart="0.00" departLane="eStart_2" departPos="16.60" departSpeed="0.00" departDelay="0.00" arrival="269.00" arrivalLane="eEnd_0" arrivalPos="1000.00" arrivalSpeed="26.40" duration="269.00" routeLength="6492.34" waitingTime="0.00" waitingCount="0" stopTime="0.00" timeLoss="23.08" rerouteNo="0" devices="tripinfo_truck_flow.0" vType="truck" speedFactor="1.01" vaporized=""/>
    <tripinfo id="normal_carflow0.2" depart="8.00" departLane="eStart_1" departPos="5.10" departSpeed="0.00" departDelay="4.40" arrival="271.00" arrivalLane="eEnd_0" arrivalPos="1000.00" arrivalSpeed="28.00" duration="263.00" routeLength="6503.84" waitingTime="0.00" waitingCount="0" stopTime="0.00" timeLoss="45.93" rerouteNo="0" devices="tripinfo_normal_carflow0.2" vType="normal_car" speedFactor="0.83" vaporized=""/>
    <tripinfo id="normal_carflow0.5" depart="20.00" departLane="eStart_2" departPos="5.10" departSpeed="0.00" departDelay="11.00" arrival="271.00" arrivalLane="eEnd_1" arrivalPos="1000.00" arrivalSpeed="30.94" duration="251.00" routeLength="6503.84" waitingTime="0.00" waitingCount="0" stopTime="0.00" timeLoss="40.39" rerouteNo="0" devices="tripinfo_normal_carflow0.5" vType="normal_car" speedFactor="0.86" vaporized=""/>
    <tripinfo id="normal_carflow0.4" depart="13.00" departLane="eStart_1" departPos="5.10" departSpeed="0.00" departDelay="5.80" arrival="272.00" arrivalLane="eEnd_2" arrivalPos="1000.00" arrivalSpeed="31.99" duration="259.00" routeLength="6503.84" waitingTime="0.00" waitingCount="0" stopTime="0.00" timeLoss="55.08" rerouteNo="0" devices="tripinfo_normal_carflow0.4" vType="normal_car" speedFactor="0.89" vaporized=""/>
    <tripinfo id="truck_flow.1" depart="16.00" departLane="eStart_0" departPos="16.60" departSpeed="0.00" departDelay="8.80" arrival="285.00" arrivalLane="eEnd_0" arrivalPos="1000.00" arrivalSpeed="26.40" duration="269.00" routeLength="6492.34" waitingTime="0.00" waitingCount="0" stopTime="0.00" timeLoss="22.21" rerouteNo="0" devices="tripinfo_truck_flow.1" vType="truck" speedFactor="0.97" vaporized=""/>
    <tripinfo id="normal_carflow0.9" depart="33.00" departLane="eStart_1" departPos="5.10" departSpeed="0.00" departDelay="16.80" arrival="287.00" arrivalLane="eEnd_0" arrivalPos="1000.00" arrivalSpeed="31.53" duration="254.00" routeLength="6503.84" waitingTime="0.00" waitingCount="0" stopTime="0.00" timeLoss="48.35" rerouteNo="0" devices="tripinfo_normal_carflow0.9" vType="normal_car" speedFactor="0.88" vaporized=""/>
    <tripinfo id="normal_carflow0.10" depart="35.00" departLane="eStart_0" departPos="5.10" departSpeed="0.00" departDelay="17.00" arrival="287.00" arrivalLane="eEnd_1" arrivalPos="1000.00" arrivalSpeed="33.99" duration="252.00" routeLength="6503.84" waitingTime="0.00" waitingCount="0" stopTime="0.00" timeLoss="59.79" rerouteNo="0" devices="tripinfo_normal_carflow0.10" vType="normal_car" speedFactor="0.94" vaporized=""/>
    <tripinfo id="normal_carflow0.11" depart="38.00" departLane="eStart_2" departPos="5.10" departSpeed="0.00" departDelay="18.20" arrival="288.00" arrivalLane="eEnd_2" arrivalPos="1000.00" arrivalSpeed="33.81" duration="250.00" routeLength="6503.84" waitingTime="0.00" waitingCount="0" stopTime="0.00" timeLoss="57.17" rerouteNo="0" devices="tripinfo_normal_carflow0.11" vType="normal_car" speedFactor="0.94" vaporized=""/>
    <tripinfo id="normal_carflow0.13" depart="44.00" departLane="eStart_2" departPos="5.10" departSpeed="0.00" departDelay="20.60" arrival="288.00" arrivalLane="eEnd_1" arrivalPos="1000.00" arrivalSpeed="34.55" duration="244.00" routeLength="6503.84" waitingTime="0.00" waitingCount="0" stopTime="0.00" timeLoss="65.02" rerouteNo="0" devices="tripinfo_normal_carflow0.13" vType="normal_car" speedFactor="1.01" vaporized=""/>
    <tripinfo id="sportly_carflow.2" depart="50.00" departLane="eStart_1" departPos="5.10" departSpeed="0.00" departDelay="21.20" arrival="289.00" arrivalLane="eEnd_2" arrivalPos="1000.00" arrivalSpeed="35.12" duration="239.00" routeLength="6503.84" waitingTime="0.00" waitingCount="0" stopTime="0.00" timeLoss="76.28" rerouteNo="0" devices="tripinfo_sportly_carflow.2" vType="sportly_car" speedFactor="1.17" vaporized=""/>
    <tripinfo id="normal_carflow0.17" depart="57.00" departLane="eStart_1" departPos="5.10" departSpeed="0.00" departDelay="26.40" arrival="289.00" arrivalLane="eEnd_1" arrivalPos="1000.00" arrivalSpeed="36.11" duration="232.00" routeLength="6503.84" waitingTime="0.00" waitingCount="0" stopTime="0.00" timeLoss="69.21" rerouteNo="0" devices="tripinfo_normal_carflow0.17" vType="normal_car" speedFactor="1.13" vaporized=""/>
    <tripinfo id="normal_carflow0.12" depart="38.00" departLane="eStart_1" departPos="5.10" departSpeed="0.00" departDelay="16.40" arrival="291.00" arrivalLane="eEnd_2" arrivalPos="1000.00" arrivalSpeed="35.75" duration="253.00" routeLength="6503.84" waitingTime="0.00" waitingCount="0" stopTime="0.00" timeLoss="89.54" rerouteNo="0" devices="tripinfo_normal_carflow0.12" vType="normal_car" speedFactor="1.16" vaporized=""/>
    <tripinfo id="bus_flow.1" depart="33.00" departLane="eStart_2" departPos="14.10" departSpeed="0.00" departDelay="18.60" arrival="292.00" arrivalLane="eEnd_0" arrivalPos="1000.00" arrivalSpeed="27.78" duration="259.00" routeLength="6494.84" waitingTime="0.00" waitingCount="0" stopTime="0.00" timeLoss="24.65" rerouteNo="0" devices="tripinfo_bus_flow.1" vType="bus" speedFactor="0.96" vaporized=""/>
    <tripinfo id="normal_carflow0.20" depart="62.00" departLane="eStart_1" departPos="5.10" departSpeed="0.00" departDelay="26.00" arrival="292.00" arrivalLane="eEnd_1" arrivalPos="1000.00" arrivalSpeed="36.11" duration="230.00" routeLength="6503.84" waitingTime="0.00" waitingCount="0" stopTime="0.00" timeLoss="66.68" rerouteNo="0" devices="tripinfo_normal_carflow0.20" vType="normal_car" speedFactor="1.15" vaporized=""/>
    <tripinfo id="normal_carflow0.19" depart="62.00" departLane="eStart_2" departPos="5.10" departSpeed="0.00" departDelay="27.80" arrival="293.00" arrivalLane="eEnd_1" arrivalPos="1000.00" arrivalSpeed="36.11" duration="231.00" routeLength="6503.84" waitingTime="0.00" waitingCount="0" stopTime="0.00" timeLoss="67.86" rerouteNo="0" devices="tripinfo_normal_carflow0.19" vType="normal_car" speedFactor="1.18" vaporized=""/>
    <tripinfo id="normal_carflow0.21" depart="69.00" departLane="eStart_2" departPos="5.10" departSpeed="0.00" departDelay="31.20" arrival="293.00" arrivalLane="eEnd_2" arrivalPos="1000.00" arrivalSpeed="36.11" duration="224.00" routeLength="6503.84" waitingTime="0.00" waitingCount="0" stopTime="0.00" timeLoss="60.61" rerouteNo="0" devices="tripinfo_normal_carflow0.21" vType="normal_car" speedFactor="1.17" vaporized=""/>
    <tripinfo id="normal_carflow0.22" depart="69.00" departLane="eStart_1" departPos="5.10" departSpeed="0.00" departDelay="29.40" arrival="294.00" arrivalLane="eEnd_1" arrivalPos="1000.00" arrivalSpeed="35.92" duration="225.00" routeLength="6503.84" waitingTime="0.00" waitingCount="0" stopTime="0.00" timeLoss="43.75" rerouteNo="0" devices="tripinfo_normal_carflow0.22" vType="normal_car" speedFactor="0.99" vaporized=""/>
    <tripinfo id="normal_carflow0.23" depart="74.00" departLane="eStart_0" departPos="5.10" departSpeed="0.00" departDelay="32.60" arrival="295.00" arrivalLane="eEnd_2" arrivalPos="1000.00" arrivalSpeed="36.11" duration="221.00" routeLength="6503.84" waitingTime="0.00" waitingCount="0" stopTime="0.00" timeLoss="43.92" rerouteNo="0" devices="tripinfo_normal_carflow0.23" vType="normal_car" speedFactor="1.02" vaporized=""/>
    <tripinfo id="normal_carflow0.14" depart="45.00" departLane="eStart_1" departPos="5.10" departSpeed="0.00" departDelay="19.80" arrival="296.00" arrivalLane="eEnd_1" arrivalPos="1000.00" arrivalSpeed="35.21" duration="251.00" routeLength="6503.84" waitingTime="0.00" waitingCount="0" stopTime="0.00" timeLoss="65.80" rerouteNo="0" devices="tripinfo_normal_carflow0.14" vType="normal_car" speedFactor="0.97" vaporized=""/>
    <tripinfo id="sportly_carflow.3" depart="74.00" departLane="eStart_2" departPos="5.10" departSpeed="0.00" departDelay="30.80" arrival="296.00" arrivalLane="eEnd_2" arrivalPos="1000.00" arrivalSpeed="36.11" duration="222.00" routeLength="6503.84" waitingTime="0.00" waitingCount="0" stopTime="0.00" timeLoss="59.18" rerouteNo="0" devices="tripinfo_sportly_carflow.3" vType="sportly_car" speedFactor="1.48" vaporized=""/>
    <tripinfo id="normal_carflow0.25" depart="81.00" departLane="eStart_2" departPos="5.10" departSpeed="0.00" departDelay="36.00" arrival="297.00" arrivalLane="eEnd_1" arrivalPos="1000.00" arrivalSpeed="36.11" duration="216.00" routeLength="6503.84" waitingTime="0.00" waitingCount="0" stopTime="0.00" timeLoss="41.18" rerouteNo="0" devices="tripinfo_normal_carflow0.25" vType="normal_car" speedFactor="1.03" vaporized=""/>
    <tripinfo id="normal_carflow0.27" depart="86.00" departLane="eStart_1" departPos="5.10" departSpeed="0.00" departDelay="37.40" arrival="299.00" arrivalLane="eEnd_2" arrivalPos="1000.00" arrivalSpeed="36.11" duration="213.00" routeLength="6503.84" waitingTime="0.00" waitingCount="0" stopTime="0.00" timeLoss="47.30" rerouteNo="0" devices="tripinfo_normal_carflow0.27" vType="normal_car" speedFactor="1.09" vaporized=""/>
    <tripinfo id="normal_carflow0.28" depart="86.00" departLane="eStart_2" departPos="5.10" departSpeed="0.00" departDelay="35.60" arrival="300.00" arrivalLane="eEnd_1" arrivalPos="1000.00" arrivalSpeed="36.11" duration="214.00" routeLength="6503.84" waitingTime="0.00" waitingCount="0" stopTime="0.00" timeLoss="39.88" rerouteNo="0" devices="tripinfo_normal_carflow0.28" vType="normal_car" speedFactor="1.04" vaporized=""/>
    <tripinfo id="truck_flow.2" depart="29.00" departLane="eStart_0" departPos="16.60" departSpeed="0.00" departDelay="14.60" arrival="301.00" arrivalLane="eEnd_0" arrivalPos="1000.00" arrivalSpeed="26.40" duration="272.00" routeLength="6492.34" waitingTime="0.00" waitingCount="0" stopTime="0.00" timeLoss="25.41" rerouteNo="0" devices="tripinfo_truck_flow.2" vType="truck" speedFactor="1.00" vaporized=""/>
    <tripinfo id="normal_carflow0.24" depart="74.00" departLane="eStart_1" departPos="5.10" departSpeed="0.00" departDelay="30.80" arrival="301.00" arrivalLane="eEnd_1" arrivalPos="1000.00" arrivalSpeed="35.14" duration="227.00" routeLength="6503.84" waitingTime="0.00" waitingCount="0" stopTime="0.00" timeLoss="41.64" rerouteNo="0" devices="tripinfo_normal_carflow0.24" vType="normal_car" speedFactor="0.97" vaporized=""/>
    <tripinfo id="normal_carflow0.29" depart="94.00" departLane="eStart_1" departPos="5.10" departSpeed="0.00" departDelay="41.80" arrival="301.00" arrivalLane="eEnd_2" arrivalPos="1000.00" arrivalSpeed="36.11" duration="207.00" routeLength="6503.84" waitingTime="0.00" waitingCount="0" stopTime="0.00" timeLoss="41.11" rerouteNo="0" devices="tripinfo_normal_carflow0.29" vType="normal_car" speedFactor="1.09" vaporized=""/>
    <tripinfo id="normal_carflow0.15" depart="48.00" departLane="eStart_0" departPos="5.10" departSpeed="0.00" departDelay="21.00" arrival="303.00" arrivalLane="eEnd_0" arrivalPos="1000.00" arrivalSpeed="28.06" duration="255.00" routeLength="6503.84" waitingTime="0.00" waitingCount="0" stopTime="0.00" timeLoss="51.69" rerouteNo="0" devices="tripinfo_normal_carflow0.15" vType="normal_car" speedFactor="0.89" vaporized=""/>
    <tripinfo id="normal_carflow0.18" depart="61.00" departLane="eStart_0" departPos="5.10" departSpeed="0.00" departDelay="28.60" arrival="303.00" arrivalLane="eEnd_1" arrivalPos="1000.00" arrivalSpeed="33.63" duration="242.00" routeLength="6503.84" waitingTime="0.00" waitingCount="0" stopTime="0.00" timeLoss="47.89" rerouteNo="0" devices="tripinfo_normal_carflow0.18" vType="normal_car" speedFactor="0.93" vaporized=""/>
    <tripinfo id="sportly_carflow.4" depart="99.00" departLane="eStart_0" departPos="5.10" departSpeed="0.00" departDelay="41.40" arrival="303.00" arrivalLane="eEnd_2" arrivalPos="1000.00" arrivalSpeed="36.11" duration="204.00" routeLength="6503.84" waitingTime="0.00" waitingCount="0" stopTime="0.00" timeLoss="40.96" rerouteNo="0" devices="tripinfo_sportly_carflow.4" vType="sportly_car" speedFactor="1.15" vaporized=""/>
    <tripinfo id="normal_carflow0.16" depart="49.00" departLane="eStart_2" departPos="5.10" departSpeed="0.00" departDelay="20.20" arrival="304.00" arrivalLane="eEnd_1" arrivalPos="1000.00" arrivalSpeed="29.68" duration="255.00" routeLength="6503.84" waitingTime="0.00" waitingCount="0" stopTime="0.00" timeLoss="36.01" rerouteNo="0" devices="tripinfo_normal_carflow0.16" vType="normal_car" speedFactor="0.83" vaporized=""/>
    <tripinfo id="normal_carflow0.30" depart="94.00" departLane="eStart_0" departPos="5.10" departSpeed="0.00" departDelay="40.00" arrival="306.00" arrivalLane="eEnd_1" arrivalPos="1000.00" arrivalSpeed="36.02" duration="212.00" routeLength="6503.84" waitingTime="0.00" waitingCount="0" stopTime="0.00" timeLoss="31.38" rerouteNo="0" devices="tripinfo_normal_carflow0.30" vType="normal_car" speedFactor="1.00" vaporized=""/>
    <tripinfo id="truck_flow.3" depart="43.00" departLane="eStart_0" departPos="16.60" departSpeed="0.00" departDelay="21.40" arrival="312.00" arrivalLane="eEnd_0" arrivalPos="1000.00" arrivalSpeed="26.40" duration="269.00" routeLength="6492.34" waitingTime="0.00" waitingCount="0" stopTime="0.00" timeLoss="23.08" rerouteNo="0" devices="tripinfo_truck_flow.3" vType="truck" speedFactor="1.01" vaporized=""/>
    <tripinfo id="normal_carflow0.26" depart="86.00" departLane="eStart_0" departPos="5.10" departSpeed="0.00" departDelay="39.20" arrival="313.00" arrivalLane="eEnd_1" arrivalPos="1000.00" arrivalSpeed="34.56" duration="227.00" routeLength="6503.84" waitingTime="0.00" waitingCount="0" stopTime="0.00" timeLoss="38.05" rerouteNo="0" devices="tripinfo_normal_carflow0.26" vType="normal_car" speedFactor="0.96" vaporized=""/>
    <tripinfo id="normal_carflow0.33" depart="106.00" departLane="eStart_2" departPos="5.10" departSpeed="0.00" departDelay="46.60" arrival="315.00" arrivalLane="eEnd_1" arrivalPos="1000.00" arrivalSpeed="36.11" duration="209.00" routeLength="6503.84" waitingTime="0.00" waitingCount="0" stopTime="0.00" timeLoss="31.19" rerouteNo="0" devices="tripinfo_normal_carflow0.33" vType="normal_car" speedFactor="1.02" vaporized=""/>
    <tripinfo id="bus_flow.2" depart="57.00" departLane="eStart_2" departPos="14.10" departSpeed="0.00" departDelay="28.20" arrival="317.00" arrivalLane="eEnd_0" arrivalPos="1000.00" arrivalSpeed="27.78" duration="260.00" routeLength="6494.84" waitingTime="0.00" waitingCount="0" stopTime="0.00" timeLoss="26.10" rerouteNo="0" devices="tripinfo_bus_flow.2" vType="bus" speedFactor="0.97" vaporized=""/>
    <tripinfo id="truck_flow.4" depart="56.00" departLane="eStart_0" departPos="16.60" departSpeed="0.00" departDelay="27.20" arrival="325.00" arrivalLane="eEnd_0" arrivalPos="1000.00" arrivalSpeed="26.40" duration="269.00" routeLength="6492.34" waitingTime="0.00" waitingCount="0" stopTime="0.00" timeLoss="22.40" rerouteNo="0" devices="tripinfo_truck_flow.4" vType="truck" speedFactor="0.96" vaporized=""/>
    <tripinfo id="normal_carflow0.34" depart="111.00" departLane="eStart_1" departPos="5.10" departSpeed="0.00" departDelay="49.80" arrival="328.00" arrivalLane="eEnd_2" arrivalPos="1000.00" arrivalSpeed="36.11" duration="217.00" routeLength="6503.84" waitingTime="0.00" waitingCount="0" stopTime="0.00" timeLoss="52.03" rerouteNo="0" devices="tripinfo_normal_carflow0.34" vType="normal_car" speedFactor="1.10" vaporized=""/>
    <tripinfo id="normal_carflow0.31" depart="99.00" departLane="eStart_2" departPos="5.10" departSpeed="0.00" departDelay="43.20" arrival="329.00" arrivalLane="eEnd_1" arrivalPos="1000.00" arrivalSpeed="32.52" duration="230.00" routeLength="6503.84" waitingTime="0.00" waitingCount="0" stopTime="0.00" timeLoss="29.80" rerouteNo="0" devices="tripinfo_normal_carflow0.31" vType="normal_car" speedFactor="0.90" vaporized=""/>
    <tripinfo id="normal_carflow0.37" depart="119.00" departLane="eStart_2" departPos="5.10" departSpeed="0.00" departDelay="52.40" arrival="329.00" arrivalLane="eEnd_2" arrivalPos="1000.00" arrivalSpeed="36.11" duration="210.00" routeLength="6503.84" waitingTime="0.00" waitingCount="0" stopTime="0.00" timeLoss="46.98" rerouteNo="0" devices="tripinfo_normal_carflow0.37" vType="normal_car" speedFactor="1.14" vaporized=""/>
    <tripinfo id="normal_carflow0.40" depart="124.00" departLane="eStart_2" departPos="5.10" departSpeed="0.00" departDelay="52.00" arrival="331.00" arrivalLane="eEnd_1" arrivalPos="1000.00" arrivalSpeed="35.09" duration="207.00" routeLength="6503.84" waitingTime="0.00" waitingCount="0" stopTime="0.00" timeLoss="39.88" rerouteNo="0" devices="tripinfo_normal_carflow0.40" vType="normal_car" speedFactor="1.08" vaporized=""/>
    <tripinfo id="sportly_carflow.5" depart="124.00" departLane="eStart_0" departPos="5.10" departSpeed="0.00" departDelay="52.00" arrival="331.00" arrivalLane="eEnd_2" arrivalPos="1000.00" arrivalSpeed="36.11" duration="207.00" routeLength="6503.84" waitingTime="0.00" waitingCount="0" stopTime="0.00" timeLoss="44.29" rerouteNo="0" devices="tripinfo_sportly_carflow.5" vType="sportly_car" speedFactor="1.42" vaporized=""/>
    <tripinfo id="normal_carflow0.35" depart="112.00" departLane="eStart_0" departPos="5.10" departSpeed="0.00" departDelay="49.00" arrival="333.00" arrivalLane="eEnd_1" arrivalPos="1000.00" arrivalSpeed="36.11" duration="221.00" routeLength="6503.84" waitingTime="0.00" waitingCount="0" stopTime="0.00" timeLoss="40.57" rerouteNo="0" devices="tripinfo_normal_carflow0.35" vType="normal_car" speedFactor="1.00" vaporized=""/>
    <tripinfo id="normal_carflow0.38" depart="119.00" departLane="eStart_0" departPos="5.10" departSpeed="0.00" departDelay="50.60" arrival="334.00" arrivalLane="eEnd_1" arrivalPos="1000.00" arrivalSpeed="36.11" duration="215.00" routeLength="6503.84" waitingTime="0.00" waitingCount="0" stopTime="0.00" timeLoss="38.59" rerouteNo="0" devices="tripinfo_normal_carflow0.38" vType="normal_car" speedFactor="1.02" vaporized=""/>
    <tripinfo id="normal_carflow0.36" depart="112.00" departLane="eStart_2" departPos="5.10" departSpeed="0.00" departDelay="47.20" arrival="335.00" arrivalLane="eEnd_1" arrivalPos="1000.00" arrivalSpeed="35.97" duration="223.00" routeLength="6503.84" waitingTime="0.00" waitingCount="0" stopTime="0.00" timeLoss="42.03" rerouteNo="0" devices="tripinfo_normal_carflow0.36" vType="normal_car" speedFactor="1.00" vaporized=""/>
    <tripinfo id="truck_flow.5" depart="69.00" departLane="eStart_0" departPos="16.60" departSpeed="0.00" departDelay="33.00" arrival="338.00" arrivalLane="eEnd_0" arrivalPos="1000.00" arrivalSpeed="26.40" duration="269.00" routeLength="6492.34" waitingTime="0.00" waitingCount="0" stopTime="0.00" timeLoss="22.13" rerouteNo="0" devices="tripinfo_truck_flow.5" vType="truck" speedFactor="1.00" vaporized=""/>
    <tripinfo id="normal_carflow0.32" depart="99.00" departLane="eStart_1" departPos="5.10" departSpeed="0.00" departDelay="41.40" arrival="339.00" arrivalLane="eEnd_1" arrivalPos="1000.00" arrivalSpeed="31.66" duration="240.00" routeLength="6503.84" waitingTime="0.00" waitingCount="0" stopTime="0.00" timeLoss="34.09" rerouteNo="0" devices="tripinfo_normal_carflow0.32" vType="normal_car" speedFactor="0.88" vaporized=""/>
    <tripinfo id="bus_flow.3" depart="81.00" departLane="eStart_1" departPos="14.10" departSpeed="0.00" departDelay="37.80" arrival="341.00" arrivalLane="eEnd_0" arrivalPos="1000.00" arrivalSpeed="27.78" duration="260.00" routeLength="6494.84" waitingTime="0.00" waitingCount="0" stopTime="0.00" timeLoss="25.53" rerouteNo="0" devices="tripinfo_bus_flow.3" vType="bus" speedFactor="0.95" vaporized=""/>
    <tripinfo id="normal_carflow0.39" depart="124.00" departLane="eStart_1" departPos="5.10" departSpeed="0.00" departDelay="53.80" arrival="341.00" arrivalLane="eEnd_1" arrivalPos="1000.00" arrivalSpeed="35.01" duration="217.00" routeLength="6503.84" waitingTime="0.00" waitingCount="0" stopTime="0.00" timeLoss="30.35" rerouteNo="0" devices="tripinfo_normal_carflow0.39" vType="normal_car" speedFactor="0.97" vaporized=""/>
    <tripinfo id="truck_flow.6" depart="81.00" departLane="eStart_0" departPos="16.60" departSpeed="0.00" departDelay="37.80" arrival="350.00" arrivalLane="eEnd_0" arrivalPos="1000.00" arrivalSpeed="26.40" duration="269.00" routeLength="6492.34" waitingTime="0.00" waitingCount="0" stopTime="0.00" timeLoss="23.01" rerouteNo="0" devices="tripinfo_truck_flow.6" vType="truck" speedFactor="1.05" vaporized=""/>
    <tripinfo id="normal_carflow0.41" depart="132.00" departLane="eStart_0" departPos="5.10" departSpeed="0.00" departDelay="58.20" arrival="354.00" arrivalLane="eEnd_1" arrivalPos="1000.00" arrivalSpeed="33.86" duration="222.00" routeLength="6503.84" waitingTime="0.00" waitingCount="0" stopTime="0.00" timeLoss="29.11" rerouteNo="0" devices="tripinfo_normal_carflow0.41" vType="normal_car" speedFactor="0.94" vaporized=""/>
    <tripinfo id="normal_carflow0.45" depart="144.00" departLane="eStart_2" departPos="5.10" departSpeed="0.00" departDelay="63.00" arrival="361.00" arrivalLane="eEnd_2" arrivalPos="1000.00" arrivalSpeed="36.11" duration="217.00" routeLength="6503.84" waitingTime="0.00" waitingCount="0" stopTime="0.00" timeLoss="40.03" rerouteNo="0" devices="tripinfo_normal_carflow0.45" vType="normal_car" speedFactor="1.02" vaporized=""/>
    <tripinfo id="normal_carflow0.44" depart="137.00" departLane="eStart_0" departPos="5.10" departSpeed="0.00" departDelay="57.80" arrival="362.00" arrivalLane="eEnd_1" arrivalPos="1000.00" arrivalSpeed="33.03" duration="225.00" routeLength="6503.84" waitingTime="0.00" waitingCount="0" stopTime="0.00" timeLoss="27.47" rerouteNo="0" devices="tripinfo_normal_carflow0.44" vType="normal_car" speedFactor="0.91" vaporized=""/>
    <tripinfo id="truck_flow.7" depart="94.00" departLane="eStart_2" departPos="16.60" departSpeed="0.00" departDelay="43.60" arrival="365.00" arrivalLane="eEnd_0" arrivalPos="1000.00" arrivalSpeed="26.40" duration="271.00" routeLength="6492.34" waitingTime="0.00" waitingCount="0" stopTime="0.00" timeLoss="24.54" rerouteNo="0" devices="tripinfo_truck_flow.7" vType="truck" speedFactor="1.02" vaporized=""/>
    <tripinfo id="normal_carflow0.43" depart="137.00" departLane="eStart_1" departPos="5.10" departSpeed="0.00" departDelay="59.60" arrival="365.00" arrivalLane="eEnd_1" arrivalPos="1000.00" arrivalSpeed="32.74" duration="228.00" routeLength="6503.84" waitingTime="0.00" waitingCount="0" stopTime="0.00" timeLoss="28.50" rerouteNo="0" devices="tripinfo_normal_carflow0.43" vType="normal_car" speedFactor="0.91" vaporized=""/>
    <tripinfo id="bus_flow.4" depart="106.00" departLane="eStart_0" departPos="14.10" departSpeed="0.00" departDelay="48.40" arrival="367.00" arrivalLane="eEnd_1" arrivalPos="1000.00" arrivalSpeed="27.78" duration="261.00" routeLength="6494.84" waitingTime="0.00" waitingCount="0" stopTime="0.00" timeLoss="26.31" rerouteNo="0" devices="tripinfo_bus_flow.4" vType="bus" speedFactor="1.08" vaporized=""/>
    <tripinfo id="sportly_carflow.6" depart="149.00" departLane="eStart_0" departPos="5.10" departSpeed="0.00" departDelay="62.60" arrival="367.00" arrivalLane="eEnd_2" arrivalPos="1000.00" arrivalSpeed="36.11" duration="218.00" routeLength="6503.84" waitingTime="0.00" waitingCount="0" stopTime="0.00" timeLoss="54.85" rerouteNo="0" devices="tripinfo_sportly_carflow.6" vType="sportly_car" speedFactor="1.36" vaporized=""/>
    <tripinfo id="normal_carflow0.42" depart="137.00" departLane="eStart_2" departPos="5.10" departSpeed="0.00" departDelay="61.40" arrival="369.00" arrivalLane="eEnd_1" arrivalPos="1000.00" arrivalSpeed="31.86" duration="232.00" routeLength="6503.84" waitingTime="0.00" waitingCount="0" stopTime="0.00" timeLoss="27.20" rerouteNo="0" devices="tripinfo_normal_carflow0.42" vType="normal_car" speedFactor="0.88" vaporized=""/>
    <tripinfo id="normal_carflow0.49" depart="157.00" departLane="eStart_0" departPos="5.10" departSpeed="0.00" departDelay="68.80" arrival="369.00" arrivalLane="eEnd_2" arrivalPos="1000.00" arrivalSpeed="36.11" duration="212.00" routeLength="6503.84" waitingTime="0.00" waitingCount="0" stopTime="0.00" timeLoss="37.38" rerouteNo="0" devices="tripinfo_normal_carflow0.49" vType="normal_car" speedFactor="1.03" vaporized=""/>
    <tripinfo id="normal_carflow0.46" depart="144.00" departLane="eStart_0" departPos="5.10" departSpeed="0.00" departDelay="61.20" arrival="370.00" arrivalLane="eEnd_2" arrivalPos="1000.00" arrivalSpeed="34.05" duration="226.00" routeLength="6503.84" waitingTime="0.00" waitingCount="0" stopTime="0.00" timeLoss="49.47" rerouteNo="0" devices="tripinfo_normal_carflow0.46" vType="normal_car" speedFactor="1.02" vaporized=""/>
    <tripinfo id="normal_carflow0.47" depart="149.00" departLane="eStart_1" departPos="5.10" departSpeed="0.00" departDelay="64.40" arrival="371.00" arrivalLane="eEnd_1" arrivalPos="1000.00" arrivalSpeed="35.13" duration="222.00" routeLength="6503.84" waitingTime="0.00" waitingCount="0" stopTime="0.00" timeLoss="36.58" rerouteNo="0" devices="tripinfo_normal_carflow0.47" vType="normal_car" speedFactor="0.97" vaporized=""/>