<?xml version="1.0" encoding="UTF-8"?>

<!-- generated on 2022-12-08 20:10:33 by Eclipse SUMO GUI Version 1.14.1
<configuration xmlns:xsi="http://www.w3.org/2001/XMLSchema-instance" xsi:noNamespaceSchemaLocation="http://sumo.dlr.de/xsd/sumoConfiguration.xsd">

    <input>
        <net-file value="mcs.net.xml"/>
        <route-files value="mcs.rou.xml"/>
        <additional-files value="mcs.add.xml"/>
    </input>

    <output>
        <tripinfo-output value="tripinfo.xml"/>
    </output>

    <traci_server>
        <remote-port value="55451"/>
    </traci_server>

    <gui_only>
        <quit-on-end value="true"/>
        <start value="true"/>
    </gui_only>

</configuration>
-->

<tripinfos xmlns:xsi="http://www.w3.org/2001/XMLSchema-instance" xsi:noNamespaceSchemaLocation="http://sumo.dlr.de/xsd/tripinfo_file.xsd">
    <tripinfo id="sportly_carflow.0" depart="0.00" departLane="eStart_1" departPos="5.10" departSpeed="0.00" departDelay="0.00" arrival="138.00" arrivalLane="eEnd_0" arrivalPos="100.00" arrivalSpeed="39.60" duration="138.00" routeLength="4295.40" waitingTime="0.00" waitingCount="0" stopTime="0.00" timeLoss="29.84" rerouteNo="1" devices="tripinfo_sportly_carflow.0 routing_sportly_carflow.0" vType="sportly_car" speedFactor="1.21" vaporized=""/>
    <tripinfo id="normal_carfow.0" depart="0.00" departLane="eStart_0" departPos="5.10" departSpeed="0.00" departDelay="0.00" arrival="155.00" arrivalLane="eEnd_0" arrivalPos="100.00" arrivalSpeed="33.78" duration="155.00" routeLength="4295.40" waitingTime="0.00" waitingCount="0" stopTime="0.00" timeLoss="27.38" rerouteNo="1" devices="tripinfo_normal_carfow.0 routing_normal_carfow.0" vType="normal_car" speedFactor="0.94" vaporized=""/>
    <tripinfo id="normal_carfow.1" depart="13.00" departLane="eStart_0" departPos="5.10" departSpeed="0.00" departDelay="12.00" arrival="187.00" arrivalLane="eEnd_0" arrivalPos="100.00" arrivalSpeed="29.66" duration="174.00" routeLength="4295.40" waitingTime="0.00" waitingCount="0" stopTime="0.00" timeLoss="30.32" rerouteNo="1" devices="tripinfo_normal_carfow.1 routing_normal_carfow.1" vType="normal_car" speedFactor="0.83" vaporized=""/>
    <tripinfo id="normal_carfow.2" depart="13.00" departLane="eStart_1" departPos="5.10" departSpeed="0.00" departDelay="11.00" arrival="187.00" arrivalLane="eEnd_1" arrivalPos="100.00" arrivalSpeed="35.49" duration="174.00" routeLength="4295.40" waitingTime="0.00" waitingCount="0" stopTime="0.00" timeLoss="59.97" rerouteNo="1" devices="tripinfo_normal_carfow.2 routing_normal_carfow.2" vType="normal_car" speedFactor="1.05" vaporized=""/>
    <tripinfo id="bus_flow.0" depart="7.00" departLane="eStart_1" departPos="14.10" departSpeed="0.00" departDelay="7.00" arrival="189.00" arrivalLane="eEnd_0" arrivalPos="100.00" arrivalSpeed="27.48" duration="182.00" routeLength="4286.40" waitingTime="0.00" waitingCount="0" stopTime="0.00" timeLoss="27.38" rerouteNo="1" devices="tripinfo_bus_flow.0 routing_bus_flow.0" vType="bus" speedFactor="0.99" vaporized=""/>
    <tripinfo id="normal_carfow.4" depart="18.00" departLane="eStart_1" departPos="5.10" departSpeed="0.00" departDelay="14.00" arrival="189.00" arrivalLane="eEnd_1" arrivalPos="100.00" arrivalSpeed="33.83" duration="171.00" routeLength="4295.40" waitingTime="0.00" waitingCount="0" stopTime="0.00" timeLoss="43.34" rerouteNo="1" devices="tripinfo_normal_carfow.4 routing_normal_carfow.4" vType="normal_car" speedFactor="0.94" vaporized=""/>
    <tripinfo id="normal_carfow.6" depart="23.00" departLane="eStart_1" departPos="5.10" departSpeed="0.00" departDelay="17.00" arrival="190.00" arrivalLane="eEnd_1" arrivalPos="100.00" arrivalSpeed="34.49" duration="167.00" routeLength="4295.40" waitingTime="0.00" waitingCount="0" stopTime="0.00" timeLoss="57.44" rerouteNo="1" devices="tripinfo_normal_carfow.6 routing_normal_carfow.6" vType="normal_car" speedFactor="1.09" vaporized=""/>
    <tripinfo id="normal_carfow.8" depart="28.00" departLane="eStart_1" departPos="5.10" departSpeed="0.00" departDelay="20.00" arrival="191.00" arrivalLane="eEnd_1" arrivalPos="100.00" arrivalSpeed="34.76" duration="163.00" routeLength="4295.40" waitingTime="0.00" waitingCount="0" stopTime="0.00" timeLoss="49.12" rerouteNo="1" devices="tripinfo_normal_carfow.8 routing_normal_carfow.8" vType="normal_car" speedFactor="1.05" vaporized=""/>
    <tripinfo id="normal_carfow.9" depart="33.00" departLane="eStart_0" departPos="5.10" departSpeed="0.00" departDelay="24.00" arrival="192.00" arrivalLane="eEnd_1" arrivalPos="100.00" arrivalSpeed="34.57" duration="159.00" routeLength="4295.40" waitingTime="0.00" waitingCount="0" stopTime="0.00" timeLoss="51.58" rerouteNo="1" devices="tripinfo_normal_carfow.9 routing_normal_carfow.9" vType="normal_car" speedFactor="1.12" vaporized=""/>
    <tripinfo id="truck_flow.0" depart="8.00" departLane="eStart_0" departPos="16.60" departSpeed="0.00" departDelay="8.00" arrival="193.00" arrivalLane="eEnd_0" arrivalPos="100.00" arrivalSpeed="26.39" duration="185.00" routeLength="4283.90" waitingTime="0.00" waitingCount="0" stopTime="0.00" timeLoss="22.43" rerouteNo="1" devices="tripinfo_truck_flow.0 routing_truck_flow.0" vType="truck" speedFactor="1.02" vaporized=""/>
    <tripinfo id="normal_carfow.10" depart="33.00" departLane="eStart_1" departPos="5.10" departSpeed="0.00" departDelay="23.00" arrival="194.00" arrivalLane="eEnd_1" arrivalPos="100.00" arrivalSpeed="35.07" duration="161.00" routeLength="4295.40" waitingTime="0.00" waitingCount="0" stopTime="0.00" timeLoss="40.23" rerouteNo="1" devices="tripinfo_normal_carfow.10 routing_normal_carfow.10" vType="normal_car" speedFactor="0.99" vaporized=""/>
    <tripinfo id="normal_carfow.3" depart="18.00" departLane="eStart_0" departPos="5.10" departSpeed="0.00" departDelay="15.00" arrival="195.00" arrivalLane="eEnd_0" arrivalPos="100.00" arrivalSpeed="27.70" duration="177.00" routeLength="4295.40" waitingTime="0.00" waitingCount="0" stopTime="0.00" timeLoss="42.24" rerouteNo="1" devices="tripinfo_normal_carfow.3 routing_normal_carfow.3" vType="normal_car" speedFactor="0.89" vaporized=""/>
    <tripinfo id="normal_carfow.11" depart="38.00" departLane="eStart_1" departPos="5.10" departSpeed="0.00" departDelay="27.00" arrival="195.00" arrivalLane="eEnd_1" arrivalPos="100.00" arrivalSpeed="33.25" duration="157.00" routeLength="4295.40" waitingTime="0.00" waitingCount="0" stopTime="0.00" timeLoss="28.27" rerouteNo="1" devices="tripinfo_normal_carfow.11 routing_normal_carfow.11" vType="normal_car" speedFactor="0.93" vaporized=""/>
    <tripinfo id="normal_carfow.5" depart="23.00" departLane="eStart_0" departPos="5.10" departSpeed="0.00" departDelay="18.00" arrival="196.00" arrivalLane="eEnd_0" arrivalPos="100.00" arrivalSpeed="27.35" duration="173.00" routeLength="4295.40" waitingTime="0.00" waitingCount="0" stopTime="0.00" timeLoss="33.97" rerouteNo="1" devices="tripinfo_normal_carfow.5 routing_normal_carfow.5" vType="normal_car" speedFactor="0.86" vaporized=""/>
    <tripinfo id="normal_carfow.7" depart="28.00" departLane="eStart_0" departPos="5.10" departSpeed="0.00" departDelay="21.00" arrival="196.00" arrivalLane="eEnd_1" arrivalPos="100.00" arrivalSpeed="31.70" duration="168.00" routeLength="4295.40" waitingTime="0.00" waitingCount="0" stopTime="0.00" timeLoss="52.07" rerouteNo="1" devices="tripinfo_normal_carfow.7 routing_normal_carfow.7" vType="normal_car" speedFactor="1.03" vaporized=""/>
    <tripinfo id="normal_carfow.13" depart="43.00" departLane="eStart_1" departPos="5.10" departSpeed="0.00" departDelay="30.00" arrival="199.00" arrivalLane="eEnd_1" arrivalPos="100.00" arrivalSpeed="33.67" duration="156.00" routeLength="4295.40" waitingTime="0.00" waitingCount="0" stopTime="0.00" timeLoss="28.67" rerouteNo="1" devices="tripinfo_normal_carfow.13 routing_normal_carfow.13" vType="normal_car" speedFactor="0.94" vaporized=""/>
    <tripinfo id="normal_carfow.12" depart="38.00" departLane="eStart_0" departPos="5.10" departSpeed="0.00" departDelay="26.00" arrival="200.00" arrivalLane="eEnd_0" arrivalPos="100.00" arrivalSpeed="31.62" duration="162.00" routeLength="4295.40" waitingTime="0.00" waitingCount="0" stopTime="0.00" timeLoss="26.09" rerouteNo="1" devices="tripinfo_normal_carfow.12 routing_normal_carfow.12" vType="normal_car" speedFactor="0.88" vaporized=""/>
    <tripinfo id="normal_carfow.14" depart="43.00" departLane="eStart_0" departPos="5.10" departSpeed="0.00" departDelay="29.00" arrival="200.00" arrivalLane="eEnd_1" arrivalPos="100.00" arrivalSpeed="33.65" duration="157.00" routeLength="4295.40" waitingTime="1.00" waitingCount="1" stopTime="0.00" timeLoss="29.91" rerouteNo="1" devices="tripinfo_normal_carfow.14 routing_normal_carfow.14" vType="normal_car" speedFactor="0.94" vaporized=""/>
    <tripinfo id="normal_carfow.15" depart="56.00" departLane="eStart_1" departPos="5.10" departSpeed="0.00" departDelay="41.00" arrival="206.00" arrivalLane="eEnd_0" arrivalPos="100.00" arrivalSpeed="36.36" duration="150.00" routeLength="4295.40" waitingTime="0.00" waitingCount="0" stopTime="0.00" timeLoss="31.45" rerouteNo="1" devices="tripinfo_normal_carfow.15 routing_normal_carfow.15" vType="normal_car" speedFactor="1.01" vaporized=""/>
    <tripinfo id="normal_carfow.16" depart="57.00" departLane="eStart_0" departPos="5.10" departSpeed="0.00" departDelay="41.00" arrival="210.00" arrivalLane="eEnd_0" arrivalPos="100.00" arrivalSpeed="35.17" duration="153.00" routeLength="4295.40" waitingTime="0.00" waitingCount="0" stopTime="0.00" timeLoss="30.54" rerouteNo="1" devices="tripinfo_normal_carfow.16 routing_normal_carfow.16" vType="normal_car" speedFactor="0.97" vaporized=""/>
    <tripinfo id="normal_carfow.17" depart="61.00" departLane="eStart_1" departPos="5.10" departSpeed="0.00" departDelay="44.00" arrival="222.00" arrivalLane="eEnd_0" arrivalPos="100.00" arrivalSpeed="31.79" duration="161.00" routeLength="4295.40" waitingTime="0.00" waitingCount="0" stopTime="0.00" timeLoss="26.66" rerouteNo="1" devices="tripinfo_normal_carfow.17 routing_normal_carfow.17" vType="normal_car" speedFactor="0.89" vaporized=""/>
    <tripinfo id="normal_carfow.19" depart="66.00" departLane="eStart_1" departPos="5.10" departSpeed="0.00" departDelay="47.00" arrival="228.00" arrivalLane="eEnd_0" arrivalPos="100.00" arrivalSpeed="31.36" duration="162.00" routeLength="4295.40" waitingTime="0.00" waitingCount="0" stopTime="0.00" timeLoss="25.21" rerouteNo="1" devices="tripinfo_normal_carfow.19 routing_normal_carfow.19" vType="normal_car" speedFactor="0.87" vaporized=""/>
    <tripinfo id="sportly_carflow.1" depart="71.00" departLane="eStart_1" departPos="5.10" departSpeed="0.00" departDelay="51.00" arrival="228.00" arrivalLane="eEnd_1" arrivalPos="100.00" arrivalSpeed="38.88" duration="157.00" routeLength="4295.40" waitingTime="0.00" waitingCount="0" stopTime="0.00" timeLoss="49.09" rerouteNo="1" devices="tripinfo_sportly_carflow.1 routing_sportly_carflow.1" vType="sportly_car" speedFactor="1.15" vaporized=""/>
    <tripinfo id="normal_carfow.21" depart="72.00" departLane="eStart_0" departPos="5.10" departSpeed="0.00" departDelay="51.00" arrival="229.00" arrivalLane="eEnd_1" arrivalPos="100.00" arrivalSpeed="37.76" duration="157.00" routeLength="4295.40" waitingTime="0.00" waitingCount="0" stopTime="0.00" timeLoss="49.57" rerouteNo="1" devices="tripinfo_normal_carfow.21 routing_normal_carfow.21" vType="normal_car" speedFactor="1.13" vaporized=""/>
    <tripinfo id="normal_carfow.23" depart="77.00" departLane="eStart_0" departPos="5.10" departSpeed="0.00" departDelay="54.00" arrival="231.00" arrivalLane="eEnd_1" arrivalPos="100.00" arrivalSpeed="36.88" duration="154.00" routeLength="4295.40" waitingTime="0.00" waitingCount="0" stopTime="0.00" timeLoss="45.96" rerouteNo="1" devices="tripinfo_normal_carfow.23 routing_normal_carfow.23" vType="normal_car" speedFactor="1.18" vaporized=""/>
    <tripinfo id="bus_flow.1" depart="50.00" departLane="eStart_1" departPos="14.10" departSpeed="0.00" departDelay="36.67" arrival="232.00" arrivalLane="eEnd_0" arrivalPos="100.00" arrivalSpeed="27.65" duration="182.00" routeLength="4286.40" waitingTime="0.00" waitingCount="0" stopTime="0.00" timeLoss="27.00" rerouteNo="1" devices="tripinfo_bus_flow.1 routing_bus_flow.1" vType="bus" speedFactor="1.03" vaporized=""/>
    <tripinfo id="normal_carfow.24" depart="81.00" departLane="eStart_1" departPos="5.10" departSpeed="0.00" departDelay="57.00" arrival="232.00" arrivalLane="eEnd_1" arrivalPos="100.00" arrivalSpeed="37.04" duration="151.00" routeLength="4295.40" waitingTime="0.00" waitingCount="0" stopTime="0.00" timeLoss="43.19" rerouteNo="1" devices="tripinfo_normal_carfow.24 routing_normal_carfow.24" vType="normal_car" speedFactor="1.15" vaporized=""/>
    <tripinfo id="normal_carfow.26" depart="86.00" departLane="eStart_1" departPos="5.10" departSpeed="0.00" departDelay="60.00" arrival="233.00" arrivalLane="eEnd_1" arrivalPos="100.00" arrivalSpeed="36.68" duration="147.00" routeLength="4295.40" waitingTime="0.00" waitingCount="0" stopTime="0.00" timeLoss="39.44" rerouteNo="1" devices="tripinfo_normal_carfow.26 routing_normal_carfow.26" vType="normal_car" speedFactor="1.17" vaporized=""/>
    <tripinfo id="normal_carfow.25" depart="82.00" departLane="eStart_0" departPos="5.10" departSpeed="0.00" departDelay="57.00" arrival="235.00" arrivalLane="eEnd_1" arrivalPos="100.00" arrivalSpeed="36.20" duration="153.00" routeLength="4295.40" waitingTime="0.00" waitingCount="0" stopTime="0.00" timeLoss="33.75" rerouteNo="1" devices="tripinfo_normal_carfow.25 routing_normal_carfow.25" vType="normal_car" speedFactor="1.01" vaporized=""/>
    <tripinfo id="normal_carfow.22" depart="76.00" departLane="eStart_1" departPos="5.10" departSpeed="0.00" departDelay="54.00" arrival="236.00" arrivalLane="eEnd_1" arrivalPos="100.00" arrivalSpeed="33.50" duration="160.00" routeLength="4295.40" waitingTime="0.00" waitingCount="0" stopTime="0.00" timeLoss="32.08" rerouteNo="1" devices="tripinfo_normal_carfow.22 routing_normal_carfow.22" vType="normal_car" speedFactor="0.93" vaporized=""/>
    <tripinfo id="normal_carfow.27" depart="87.00" departLane="eStart_0" departPos="5.10" departSpeed="0.00" departDelay="60.00" arrival="238.00" arrivalLane="eEnd_1" arrivalPos="100.00" arrivalSpeed="35.03" duration="151.00" routeLength="4295.40" waitingTime="0.00" waitingCount="0" stopTime="0.00" timeLoss="30.54" rerouteNo="1" devices="tripinfo_normal_carfow.27 routing_normal_carfow.27" vType="normal_car" speedFactor="0.99" vaporized=""/>
    <tripinfo id="truck_flow.1" depart="52.00" departLane="eStart_0" departPos="16.60" departSpeed="0.00" departDelay="38.67" arrival="239.00" arrivalLane="eEnd_0" arrivalPos="100.00" arrivalSpeed="26.00" duration="187.00" routeLength="4283.90" waitingTime="0.00" waitingCount="0" stopTime="0.00" timeLoss="24.46" rerouteNo="1" devices="tripinfo_truck_flow.1 routing_truck_flow.1" vType="truck" speedFactor="1.01" vaporized=""/>
    <tripinfo id="normal_carfow.20" depart="67.00" departLane="eStart_0" departPos="5.10" departSpeed="0.00" departDelay="47.00" arrival="239.00" arrivalLane="eEnd_1" arrivalPos="100.00" arrivalSpeed="32.99" duration="172.00" routeLength="4295.40" waitingTime="0.00" waitingCount="0" stopTime="0.00" timeLoss="42.14" rerouteNo="1" devices="tripinfo_normal_carfow.20 routing_normal_carfow.20" vType="normal_car" speedFactor="0.92" vaporized=""/>
    <tripinfo id="normal_carfow.18" depart="62.00" departLane="eStart_0" departPos="5.10" departSpeed="0.00" departDelay="44.00" arrival="241.00" arrivalLane="eEnd_1" arrivalPos="100.00" arrivalSpeed="29.58" duration="179.00" routeLength="4295.40" waitingTime="0.00" waitingCount="0" stopTime="0.00" timeLoss="33.96" rerouteNo="1" devices="tripinfo_normal_carfow.18 routing_normal_carfow.18" vType="normal_car" speedFactor="0.83" vaporized=""/>
    <tripinfo id="normal_carfow.28" depart="101.00" departLane="eStart_0" departPos="5.10" departSpeed="0.00" departDelay="73.00" arrival="244.00" arrivalLane="eEnd_1" arrivalPos="100.00" arrivalSpeed="39.91" duration="143.00" routeLength="4295.40" waitingTime="0.00" waitingCount="0" stopTime="0.00" timeLoss="35.36" rerouteNo="1" devices="tripinfo_normal_carfow.28 routing_normal_carfow.28" vType="normal_car" speedFactor="1.18" vaporized=""/>
    <tripinfo id="normal_carfow.29" depart="106.00" departLane="eStart_1" departPos="5.10" departSpeed="0.00" departDelay="77.00" arrival="247.00" arrivalLane="eEnd_1" arrivalPos="100.00" arrivalSpeed="39.80" duration="141.00" routeLength="4295.40" waitingTime="0.00" waitingCount="0" stopTime="0.00" timeLoss="32.89" rerouteNo="1" devices="tripinfo_normal_carfow.29 routing_normal_carfow.29" vType="normal_car" speedFactor="1.10" vaporized=""/>
    <tripinfo id="normal_carfow.31" depart="111.00" departLane="eStart_1" departPos="5.10" departSpeed="0.00" departDelay="80.00" arrival="258.00" arrivalLane="eEnd_1" arrivalPos="100.00" arrivalSpeed="37.05" duration="147.00" routeLength="4295.40" waitingTime="0.00" waitingCount="0" stopTime="0.00" timeLoss="31.14" rerouteNo="1" devices="tripinfo_normal_carfow.31 routing_normal_carfow.31" vType="normal_car" speedFactor="1.03" vaporized=""/>
    <tripinfo id="normal_carfow.30" depart="106.00" departLane="eStart_0" departPos="5.10" departSpeed="0.00" departDelay="76.00" arrival="270.00" arrivalLane="eEnd_0" arrivalPos="100.00" arrivalSpeed="32.42" duration="164.00" routeLength="4295.40" waitingTime="0.00" waitingCount="0" stopTime="0.00" timeLoss="31.71" rerouteNo="1" devices="tripinfo_normal_carfow.30 routing_normal_carfow.30" vType="normal_car" speedFactor="0.90" vaporized=""/>
    <tripinfo id="normal_carfow.32" depart="111.00" departLane="eStart_0" departPos="5.10" departSpeed="0.00" departDelay="79.00" arrival="282.00" arrivalLane="eEnd_0" arrivalPos="100.00" arrivalSpeed="29.09" duration="171.00" routeLength="4295.40" waitingTime="0.00" waitingCount="0" stopTime="0.00" timeLoss="46.65" rerouteNo="1" devices="tripinfo_normal_carfow.32 routing_normal_carfow.32" vType="normal_car" speedFactor="0.96" vaporized=""/>
    <tripinfo id="normal_carfow.33" depart="116.00" departLane="eStart_0" departPos="5.10" departSpeed="0.00" departDelay="83.00" arrival="288.00" arrivalLane="eEnd_1" arrivalPos="100.00" arrivalSpeed="29.07" duration="172.00" routeLength="4295.40" waitingTime="0.00" waitingCount="0" stopTime="0.00" timeLoss="62.45" rerouteNo="1" devices="tripinfo_normal_carfow.33 routing_normal_carfow.33" vType="normal_car" speedFactor="1.09" vaporized=""/>
    <tripinfo id="normal_carfow.34" depart="117.00" departLane="eStart_1" departPos="5.10" departSpeed="0.00" departDelay="83.00" arrival="296.00" arrivalLane="eEnd_0" arrivalPos="100.00" arrivalSpeed="27.47" duration="179.00" routeLength="4295.40" waitingTime="0.00" waitingCount="0" stopTime="0.00" timeLoss="64.09" rerouteNo="1" devices="tripinfo_normal_carfow.34 routing_normal_carfow.34" vType="normal_car" speedFactor="1.04" vaporized=""/>
    <tripinfo id="normal_carfow.36" depart="122.00" departLane="eStart_1" departPos="5.10" departSpeed="0.00" departDelay="86.00" arrival="302.00" arrivalLane="eEnd_1" arrivalPos="100.00" arrivalSpeed="27.03" duration="180.00" routeLength="4295.40" waitingTime="0.00" waitingCount="0" stopTime="0.00" timeLoss="70.61" rerouteNo="1" devices="tripinfo_normal_carfow.36 routing_normal_carfow.36" vType="normal_car" speedFactor="1.09" vaporized=""/>
    <tripinfo id="normal_carfow.35" depart="121.00" departLane="eStart_0" departPos="5.10" departSpeed="0.00" departDelay="86.00" arrival="304.00" arrivalLane="eEnd_1" arrivalPos="100.00" arrivalSpeed="27.37" duration="183.00" routeLength="4295.40" waitingTime="0.00" waitingCount="0" stopTime="0.00" timeLoss="68.87" rerouteNo="1" devices="tripinfo_normal_carfow.35 routing_normal_carfow.35" vType="normal_car" speedFactor="1.04" vaporized=""/>
    <tripinfo id="bus_flow.2" depart="93.00" departLane="eStart_1" departPos="14.10" departSpeed="0.00" departDelay="66.33" arrival="312.00" arrivalLane="eEnd_0" arrivalPos="100.00" arrivalSpeed="26.05" duration="219.00" routeLength="4286.40" waitingTime="11.00" waitingCount="1" stopTime="0.00" timeLoss="64.25" rerouteNo="1" devices="tripinfo_bus_flow.2 routing_bus_flow.2" vType="bus" speedFactor="0.96" vaporized=""/>
    <tripinfo id="normal_carfow.37" depart="126.00" departLane="eStart_0" departPos="5.10" departSpeed="0.00" departDelay="89.00" arrival="313.00" arrivalLane="eEnd_1" arrivalPos="100.00" arrivalSpeed="26.65" duration="187.00" routeLength="4295.40" waitingTime="5.00" waitingCount="1" stopTime="0.00" timeLoss="67.64" rerouteNo="1" devices="tripinfo_normal_carfow.37 routing_normal_carfow.37" vType="normal_car" speedFactor="1.00" vaporized=""/>
    <tripinfo id="normal_carfow.38" depart="128.00" departLane="eStart_1" departPos="5.10" departSpeed="0.00" departDelay="90.00" arrival="315.00" arrivalLane="eEnd_1" arrivalPos="100.00" arrivalSpeed="27.31" duration="187.00" routeLength="4295.40" waitingTime="0.00" waitingCount="0" stopTime="0.00" timeLoss="54.24" rerouteNo="1" devices="tripinfo_normal_carfow.38 routing_normal_carfow.38" vType="normal_car" speedFactor="0.90" vaporized=""/>
    <tripinfo id="normal_carfow.40" depart="133.00" departLane="eStart_1" departPos="5.10" departSpeed="0.00" departDelay="93.00" arrival="325.00" arrivalLane="eEnd_0" arrivalPos="100.00" arrivalSpeed="27.22" duration="192.00" routeLength="4295.40" waitingTime="0.00" waitingCount="0" stopTime="0.00" timeLoss="51.55" rerouteNo="1" devices="tripinfo_normal_carfow.40 routing_normal_carfow.40" vType="normal_car" speedFactor="0.85" vaporized=""/>
    <tripinfo id="truck_flow.2" depart="101.00" departLane="eStart_1" departPos="16.60" departSpeed="0.00" departDelay="74.33" arrival="333.00" arrivalLane="eEnd_0" arrivalPos="100.00" arrivalSpeed="26.36" duration="232.00" routeLength="4283.90" waitingTime="10.00" waitingCount="3" stopTime="0.00" timeLoss="69.27" rerouteNo="1" devices="tripinfo_truck_flow.2 routing_truck_flow.2" vType="truck" speedFactor="0.99" vaporized=""/>
    <tripinfo id="sportly_carflow.2" depart="136.00" departLane="eStart_0" departPos="5.10" departSpeed="0.00" departDelay="96.00" arrival="335.00" arrivalLane="eEnd_1" arrivalPos="100.00" arrivalSpeed="27.68" duration="199.00" routeLength="4295.40" waitingTime="3.00" waitingCount="1" stopTime="0.00" timeLoss="85.91" rerouteNo="1" devices="tripinfo_sportly_carflow.2 routing_sportly_carflow.2" vType="sportly_car" speedFactor="1.05" vaporized=""/>
    <tripinfo id="normal_carfow.39" depart="130.00" departLane="eStart_0" departPos="5.10" departSpeed="0.00" departDelay="91.00" arrival="338.00" arrivalLane="eEnd_1" arrivalPos="100.00" arrivalSpeed="27.79" duration="208.00" routeLength="4295.40" waitingTime="7.00" waitingCount="3" stopTime="0.00" timeLoss="71.55" rerouteNo="1" devices="tripinfo_normal_carfow.39 routing_normal_carfow.39" vType="normal_car" speedFactor="0.88" vaporized=""/>
    <tripinfo id="normal_carfow.41" depart="145.00" departLane="eStart_1" departPos="5.10" departSpeed="0.00" departDelay="104.00" arrival="340.00" arrivalLane="eEnd_1" arrivalPos="100.00" arrivalSpeed="27.14" duration="195.00" routeLength="4295.40" waitingTime="6.00" waitingCount="1" stopTime="0.00" timeLoss="86.09" rerouteNo="1" devices="tripinfo_normal_carfow.41 routing_normal_carfow.41" vType="normal_car" speedFactor="1.10" vaporized=""/>
    <tripinfo id="normal_carfow.43" depart="150.00" departLane="eStart_1" departPos="5.10" departSpeed="0.00" departDelay="107.00" arrival="343.00" arrivalLane="eEnd_0" arrivalPos="100.00" arrivalSpeed="27.29" duration="193.00" routeLength="4295.40" waitingTime="7.00" waitingCount="3" stopTime="0.00" timeLoss="73.33" rerouteNo="1" devices="tripinfo_normal_carfow.43 routing_normal_carfow.43" vType="normal_car" speedFactor="1.00" vaporized=""/>
    <tripinfo id="normal_carfow.42" depart="149.00" departLane="eStart_0" departPos="5.10" departSpeed="0.00" departDelay="107.00" arrival="346.00" arrivalLane="eEnd_0" arrivalPos="100.00" arrivalSpeed="27.55" duration="197.00" routeLength="4295.40" waitingTime="10.00" waitingCount="1" stopTime="0.00" timeLoss="78.04" rerouteNo="1" devices="tripinfo_normal_carfow.42 routing_normal_carfow.42" vType="normal_car" speedFactor="1.00" vaporized=""/>
    <tripinfo id="normal_carfow.45" depart="155.00" departLane="eStart_1" departPos="5.10" departSpeed="0.00" departDelay="110.00" arrival="347.00" arrivalLane="eEnd_1" arrivalPos="100.00" arrivalSpeed="27.91" duration="192.00" routeLength="4295.40" waitingTime="11.00" waitingCount="1" stopTime="0.00" timeLoss="84.43" rerouteNo="1" devices="tripinfo_normal_carfow.45 routing_normal_carfow.45" vType="normal_car" speedFactor="1.14" vaporized=""/>
    <tripinfo id="normal_carfow.44" depart="154.00" departLane="eStart_0" departPos="5.10" departSpeed="0.00" departDelay="110.00" arrival="352.00" arrivalLane="eEnd_1" arrivalPos="100.00" arrivalSpeed="27.51" duration="198.00" routeLength="4295.40" waitingTime="4.00" waitingCount="1" stopTime="0.00" timeLoss="65.27" rerouteNo="1" devices="tripinfo_normal_carfow.44 routing_normal_carfow.44" vType="normal_car" speedFactor="0.90" vaporized=""/>
    <tripinfo id="bus_flow.3" depart="140.00" departLane="eStart_1" departPos="14.10" departSpeed="0.00" departDelay="100.00" arrival="359.00" arrivalLane="eEnd_0" arrivalPos="100.00" arrivalSpeed="26.77" duration="219.00" routeLength="4286.40" waitingTime="7.00" waitingCount="3" stopTime="0.00" timeLoss="64.39" rerouteNo="1" devices="tripinfo_bus_flow.3 routing_bus_flow.3" vType="bus" speedFactor="1.03" vaporized=""/>
    <tripinfo id="normal_carfow.47" depart="160.00" departLane="eStart_1" departPos="5.10" departSpeed="0.00" departDelay="113.00" arrival="360.00" arrivalLane="eEnd_1" arrivalPos="100.00" arrivalSpeed="28.02" duration="200.00" routeLength="4295.40" waitingTime="6.00" waitingCount="4" stopTime="0.00" timeLoss="77.07" rerouteNo="1" devices="tripinfo_normal_carfow.47 routing_normal_carfow.47" vType="normal_car" speedFactor="0.97" vaporized=""/>
    <tripinfo id="normal_carfow.46" depart="159.00" departLane="eStart_0" departPos="5.10" departSpeed="0.00" departDelay="113.00" arrival="364.00" arrivalLane="eEnd_1" arrivalPos="100.00" arrivalSpeed="28.36" duration="205.00" routeLength="4295.40" waitingTime="8.00" waitingCount="4" stopTime="0.00" timeLoss="88.64" rerouteNo="1" devices="tripinfo_normal_carfow.46 routing_normal_carfow.46" vType="normal_car" speedFactor="1.02" vaporized=""/>
    <tripinfo id="normal_carfow.49" depart="166.00" departLane="eStart_1" departPos="5.10" departSpeed="0.00" departDelay="117.00" arrival="366.00" arrivalLane="eEnd_1" arrivalPos="100.00" arrivalSpeed="28.78" duration="200.00" routeLength="4295.40" waitingTime="5.00" waitingCount="3" stopTime="0.00" timeLoss="92.37" rerouteNo="1" devices="tripinfo_normal_carfow.49 routing_normal_carfow.49" vType="normal_car" speedFactor="1.12" vaporized=""/>
    <tripinfo id="normal_carfow.48" depart="164.00" departLane="eStart_0" departPos="5.10" departSpeed="0.00" departDelay="116.00" arrival="371.00" arrivalLane="eEnd_1" arrivalPos="100.00" arrivalSpeed="27.88" duration="207.00" routeLength="4295.40" waitingTime="4.00" waitingCount="2" stopTime="0.00" timeLoss="96.66" rerouteNo="1" devices="tripinfo_normal_carfow.48 routing_normal_carfow.48" vType="normal_car" speedFactor="1.08" vaporized=""/>
    <tripinfo id="truck_flow.3" depart="144.00" departLane="eStart_0" departPos="16.60" departSpeed="0.00" departDelay="104.00" arrival="378.00" arrivalLane="eEnd_0" arrivalPos="100.00" arrivalSpeed="26.23" duration="234.00" routeLength="4283.90" waitingTime="5.00" waitingCount="3" stopTime="0.00" timeLoss="70.87" rerouteNo="1" devices="tripinfo_truck_flow.3 routing_truck_flow.3" vType="truck" speedFactor="1.01" vaporized=""/>
    <tripinfo id="normal_carfow.51" depart="171.00" departLane="eStart_1" departPos="5.10" departSpeed="0.00" departDelay="120.00" arrival="380.00" arrivalLane="eEnd_1" arrivalPos="100.00" arrivalSpeed="28.57" duration="209.00" routeLength="4295.40" waitingTime="3.00" waitingCount="3" stopTime="0.00" timeLoss="81.34" rerouteNo="1" devices="tripinfo_normal_carfow.51 routing_normal_carfow.51" vType="normal_car" speedFactor="0.94" vaporized=""/>
    <tripinfo id="normal_carfow.50" depart="169.00" departLane="eStart_0" departPos="5.10" departSpeed="0.00" departDelay="119.00" arrival="383.00" arrivalLane="eEnd_1" arrivalPos="100.00" arrivalSpeed="28.19" duration="214.00" routeLength="4295.40" waitingTime="9.00" waitingCount="5" stopTime="0.00" timeLoss="93.44" rerouteNo="1" devices="tripinfo_normal_carfow.50 routing_normal_carfow.50" vType="normal_car" speedFactor="0.99" vaporized=""/>
    <tripinfo id="normal_carfow.53" depart="177.00" departLane="eStart_1" departPos="5.10" departSpeed="0.00" departDelay="124.00" arrival="386.00" arrivalLane="eEnd_1" arrivalPos="100.00" arrivalSpeed="28.83" duration="209.00" routeLength="4295.40" waitingTime="4.00" waitingCount="2" stopTime="0.00" timeLoss="77.46" rerouteNo="1" devices="tripinfo_normal_carfow.53 routing_normal_carfow.53" vType="normal_car" speedFactor="0.91" vaporized=""/>
    <tripinfo id="normal_carfow.52" depart="174.00" departLane="eStart_0" departPos="5.10" departSpeed="0.00" departDelay="122.00" arrival="391.00" arrivalLane="eEnd_0" arrivalPos="100.00" arrivalSpeed="27.58" duration="217.00" routeLength="4295.40" waitingTime="7.00" waitingCount="3" stopTime="0.00" timeLoss="81.57" rerouteNo="1" devices="tripinfo_normal_carfow.52 routing_normal_carfow.52" vType="normal_car" speedFactor="0.88" vaporized=""/>